# vtk DataFile Version 2.0
estrutura, Created by Gmsh
ASCII
DATASET UNSTRUCTURED_GRID
POINTS 610 double
0 0 0
0 0 20
0 47.5 0
0 47.5 20
25 0 0
25 0 20
120 47.5 20
25 12.5 20
10 12.5 20
10 37.5 20
69 37.5 20
69 13 20
94 13 20
94 37.5 20
110 37.5 20
110 13 20
110 12.5 20
110 0 20
120 0 20
120 47.5 0
25 12.5 0
10 12.5 0
10 37.5 0
69 37.5 0
69 13 0
94 13 0
94 37.5 0
110 37.5 0
110 13 0
110 12.5 0
110 0 0
120 0 0
0 0 5.000000000000014
0 0 10.00000000000003
0 0 15.00000000000001
0 5.937499999999996 0
0 11.87499999999999 0
0 17.81249999999999 0
0 23.74999999999999 0
0 29.6875 0
0 35.625 0
0 41.5625 0
0 47.5 5.000000000000014
0 47.5 10.00000000000003
0 47.5 15.00000000000001
0 5.937499999999996 20
0 11.87499999999999 20
0 17.81249999999999 20
0 23.74999999999999 20
0 29.6875 20
0 35.625 20
0 41.5625 20
6.249999999999994 0 0
12.49999999999999 0 0
18.74999999999999 0 0
6.249999999999994 0 20
12.49999999999999 0 20
18.74999999999999 0 20
25 0 5.000000000000014
25 0 10.00000000000003
25 0 15.00000000000001
6.000000000000007 47.5 20
12.00000000000001 47.5 20
18.00000000000001 47.5 20
24.00000000000001 47.5 20
30.00000000000001 47.5 20
36.00000000000001 47.5 20
42.00000000000001 47.5 20
48.00000000000001 47.5 20
54.00000000000001 47.5 20
60.00000000000001 47.5 20
66 47.5 20
72 47.5 20
78 47.5 20
84 47.5 20
90 47.5 20
96 47.5 20
102 47.5 20
108 47.5 20
114 47.5 20
25 3.124999999999997 20
25 6.249999999999994 20
25 9.374999999999996 20
13.75 12.5 20
17.5 12.5 20
21.25 12.5 20
10 18.74999999999999 20
10 24.99999999999999 20
10 31.24999999999999 20
14.91666666666666 37.5 20
19.83333333333331 37.5 20
24.74999999999998 37.5 20
29.66666666666664 37.5 20
34.58333333333331 37.5 20
39.49999999999999 37.5 20
44.41666666666665 37.5 20
49.33333333333332 37.5 20
54.24999999999999 37.5 20
59.16666666666666 37.5 20
64.08333333333333 37.5 20
69 19.12500000000002 20
69 25.25000000000004 20
69 31.37500000000002 20
75.25 13 20
81.49999999999999 13 20
87.75 13 20
94 19.12500000000002 20
94 25.25000000000004 20
94 31.37500000000002 20
98 37.5 20
102 37.5 20
106 37.5 20
110 19.12500000000002 20
110 25.25000000000004 20
110 31.37500000000002 20
110 12.625 20
110 12.75 20
110 12.875 20
110 3.124999999999997 20
110 6.249999999999994 20
110 9.374999999999996 20
112.5 0 20
115 0 20
117.5 0 20
120 5.937499999999996 20
120 11.87499999999999 20
120 17.81249999999999 20
120 23.74999999999999 20
120 29.6875 20
120 35.625 20
120 41.5625 20
6.000000000000007 47.5 0
12.00000000000001 47.5 0
18.00000000000001 47.5 0
24.00000000000001 47.5 0
30.00000000000001 47.5 0
36.00000000000001 47.5 0
42.00000000000001 47.5 0
48.00000000000001 47.5 0
54.00000000000001 47.5 0
60.00000000000001 47.5 0
66 47.5 0
72 47.5 0
78 47.5 0
84 47.5 0
90 47.5 0
96 47.5 0
102 47.5 0
108 47.5 0
114 47.5 0
120 47.5 5.000000000000014
120 47.5 10.00000000000003
120 47.5 15.00000000000001
25 3.124999999999997 0
25 6.249999999999994 0
25 9.374999999999996 0
13.75 12.5 0
17.5 12.5 0
21.25 12.5 0
10 18.74999999999999 0
10 24.99999999999999 0
10 31.24999999999999 0
14.91666666666666 37.5 0
19.83333333333331 37.5 0
24.74999999999998 37.5 0
29.66666666666664 37.5 0
34.58333333333331 37.5 0
39.49999999999999 37.5 0
44.41666666666665 37.5 0
49.33333333333332 37.5 0
54.24999999999999 37.5 0
59.16666666666666 37.5 0
64.08333333333333 37.5 0
69 19.12500000000002 0
69 25.25000000000004 0
69 31.37500000000002 0
75.25 13 0
81.49999999999999 13 0
87.75 13 0
94 19.12500000000002 0
94 25.25000000000004 0
94 31.37500000000002 0
98 37.5 0
102 37.5 0
106 37.5 0
110 19.12500000000002 0
110 25.25000000000004 0
110 31.37500000000002 0
110 12.625 0
110 12.75 0
110 12.875 0
110 3.124999999999997 0
110 6.249999999999994 0
110 9.374999999999996 0
112.5 0 0
115 0 0
117.5 0 0
120 5.937499999999996 0
120 11.87499999999999 0
120 17.81249999999999 0
120 23.74999999999999 0
120 29.6875 0
120 35.625 0
120 41.5625 0
25 12.5 14.99999999999999
25 12.5 9.999999999999972
25 12.5 4.999999999999986
120 0 5.000000000000014
120 0 10.00000000000003
120 0 15.00000000000001
110 0 5.000000000000014
110 0 10.00000000000003
110 0 15.00000000000001
110 12.5 5.000000000000014
110 12.5 10.00000000000003
110 12.5 15.00000000000001
110 13 5.000000000000014
110 13 10.00000000000003
110 13 15.00000000000001
110 37.5 5.000000000000014
110 37.5 10.00000000000003
110 37.5 15.00000000000001
94 37.5 5.000000000000014
94 37.5 10.00000000000003
94 37.5 15.00000000000001
94 13 5.000000000000014
94 13 10.00000000000003
94 13 15.00000000000001
69 13 5.000000000000014
69 13 10.00000000000003
69 13 15.00000000000001
69 37.5 5.000000000000014
69 37.5 10.00000000000003
69 37.5 15.00000000000001
10 37.5 5.000000000000014
10 37.5 10.00000000000003
10 37.5 15.00000000000001
10 12.5 5.000000000000014
10 12.5 10.00000000000003
10 12.5 15.00000000000001
0 23.69759752343421 10.00000000781441
0 35.63773710335862 10.00000000332081
0 11.82914335271254 10.00000000354708
0 29.66766731339641 10.00000000556761
0 35.63136855167931 5.000000001660407
0 23.7237987617171 5.000000003907203
0 29.67758365669821 5.000000002783805
0 23.7237987617171 15.0000000039072
0 35.63136855167931 15.00000000166041
0 29.6775836566982 15.00000000278381
0 41.56886855167931 10.00000000166042
0 41.56568427583965 5.000000000830211
0 5.914571676356268 10.00000000177355
0 11.85207167635626 5.000000001773539
0 5.926035838178132 5.000000000886777
0 41.56568427583965 15.00000000083021
0 11.85207167635626 15.00000000177354
0 5.926035838178132 15.00000000088678
0 17.76337043807337 10.00000000568074
0 17.78793521903668 5.000000002840371
0 17.78793521903668 15.00000000284037
12.53906250038757 0 10.00000000101518
12.51953125019378 0 5.000000000507589
6.269531250193783 0 10.0000000005076
6.259765625096888 0 5.000000000253801
12.51953125019378 0 15.00000000050759
6.259765625096888 0 15.0000000002538
18.76953125019378 0 10.0000000005076
18.75976562509689 0 5.000000000253801
18.75976562509689 0 15.0000000002538
81.2217924919124 25.16103980108944 20
79.70116921505807 36.93643487377926 20
115 9.062499999999993 20
115 12.1875 20
11.24999999999999 6.25 20
14.99999999999999 6.25 20
112.5 3.124999999999997 20
21.25 9.374999999999996 20
115 12.3125 20
115 12.4375 20
59.58333333333334 42.5 20
64.5 42.5 20
54.66666666666667 42.5 20
116.25 4.531249999999996 20
20 4.687499999999998 20
74.35058460752904 37.21821743688963 20
75.1108962459562 25.20551990054474 20
80.46148085348523 31.04873733743435 20
74.73074042674261 31.21186866871719 20
5 24.37499999999999 20
5 12.1875 20
5 18.28124999999999 20
5.624999999999996 6.093749999999998 20
5 36.5625 20
5 30.46874999999999 20
115 24.50000000000002 20
115 36.5625 20
115 30.53125000000001 20
109 42.5 20
114.5 42.03125 20
81.36089624595618 19.08051990054472 20
75.18044812297811 19.10275995027237 20
87.6108962459562 25.20551990054474 20
86.85058460752904 37.21821743688963 20
87.23074042674261 31.21186866871719 20
75.85058460752904 42.21821743688963 20
70.17529230376452 42.35910871844482 20
89 42.5 20
99 42.5 20
94 42.5 20
104 42.5 20
87.68044812297808 19.10275995027237 20
11.00000000000001 42.5 20
5.500000000000004 42.03125 20
43.75 42.5 20
49.20833333333334 42.5 20
82.42529230376452 42.35910871844482 20
21.91666666666666 42.5 20
16.45833333333333 42.5 20
32.83333333333333 42.5 20
38.29166666666667 42.5 20
27.37499999999999 42.5 20
115 18.46875000000001 20
113.3333333333333 10.20833333333333 20
13.33333333333333 8.333333333333334 20
111.6666666666667 2.083333333333331 20
22.5 10.41666666666666 20
113.3333333333333 12.375 20
113.3333333333333 12.54166666666666 20
62.72222222222223 40.83333333333334 20
56.16666666666667 40.83333333333334 20
23.78455197325612 47.5 10.0000000131284
11.91545033724855 47.5 10.00000000445156
35.86106262453966 47.5 10.00000001507203
48.01625822445386 47.5 10.00000001584086
60.15567854832562 47.5 10.00000001453386
72.1952167144849 47.5 10.00000001188564
84.17811633493039 47.5 10.0000000083354
108.1188726320415 47.5 10.00000000341914
96.11673058670661 47.5 10.00000000427006
60.07783927416281 47.5 5.000000007266931
48.00812911222693 47.5 5.000000007920429
54.08596838638974 47.5 10.00000001518736
54.04298419319488 47.5 5.00000000759368
48.00812911222693 47.5 15.00000000792043
60.07783927416281 47.5 15.00000000726693
54.04298419319488 47.5 15.00000000759368
5.957725168624274 47.5 10.00000000222579
11.95772516862428 47.5 5.000000002225778
5.97886258431214 47.5 5.000000001112896
108.0594363160208 47.5 5.000000001709568
114.0594363160208 47.5 10.00000000170958
114.0297181580104 47.5 5.000000000854792
108.0594363160208 47.5 15.00000000170957
114.0297181580104 47.5 15.00000000085479
11.95772516862428 47.5 15.00000000222578
5.97886258431214 47.5 15.0000000011129
96.0583652933533 47.5 5.000000002135031
102.1178016093741 47.5 10.0000000038446
102.058900804687 47.5 5.0000000019223
96.0583652933533 47.5 15.00000000213503
102.058900804687 47.5 15.0000000019223
17.85000115525234 47.5 10.00000000878998
23.89227598662806 47.5 5.000000006564201
17.92500057762618 47.5 5.000000004394989
23.89227598662806 47.5 15.0000000065642
17.92500057762618 47.5 15.00000000439499
66.17544763140526 47.5 10.00000001320975
72.09760835724245 47.5 5.000000005942818
66.08772381570263 47.5 5.000000006604875
72.09760835724245 47.5 15.00000000594282
66.08772381570263 47.5 15.00000000660487
35.93053131226984 47.5 5.000000007536015
41.93866042449676 47.5 10.00000001545644
41.96933021224839 47.5 5.000000007728222
78.18666652470765 47.5 10.00000001011052
84.0890581674652 47.5 5.0000000041677
78.09333326235382 47.5 5.000000005055259
35.93053131226984 47.5 15.00000000753602
41.96933021224839 47.5 15.00000000772822
84.0890581674652 47.5 15.0000000041677
78.09333326235382 47.5 15.00000000505526
90.1474234608185 47.5 10.00000000630273
90.07371173040924 47.5 5.000000003151365
90.07371173040926 47.5 15.00000000315137
29.82280729889789 47.5 10.00000001410022
29.91140364944895 47.5 5.000000007050108
29.91140364944895 47.5 15.00000000705011
81.22179249197933 25.16103980496385 0
79.70116921432461 36.93643489425487 0
[...]
POINT_DATA 610
VECTORS vectors float
1.0  5.96250527692e-17  2.20512171468e-17  
1.0  5.96250527692e-17  2.20512171468e-17  
1.0  5.96250527692e-17  2.20512171468e-17  
1.0  5.96250527692e-17  2.20512171468e-17  
-0.78121189211  0.224812967929  -0.607879600781  
-0.78121189211  0.224812967929  -0.607879600781  
-0.29987066417  0.343550764089  -0.928938856358  
-0.167515299117  0.35503496875  -0.95999139665  
0.488976243218  0.314134864333  -0.849400182211  
0.917378419747  0.143335041334  -0.387568602056  
-0.114376424321  0.357760387485  -0.967360751131  
-0.56801058198  0.29638946223  -0.801417772452  
-0.629365371707  0.279855565019  -0.756711192896  
-0.295852503653  0.344002275765  -0.930159714477  
-0.371398366827  0.334365358342  -0.90410211838  
-0.653214657377  0.272675865295  -0.737297753173  
-0.658532925057  0.271011784467  -0.732798187163  
-0.78121189211  0.224812967929  -0.607879600781  
-0.78121189211  0.224812967929  -0.607879600781  
-0.29987066417  0.343550764089  -0.928938856358  
-0.167515299117  0.35503496875  -0.95999139665  
0.488976243218  0.314134864333  -0.849400182211  
0.917378419747  0.143335041334  -0.387568602056  
-0.114376424321  0.357760387485  -0.967360751131  
-0.56801058198  0.29638946223  -0.801417772452  
-0.629365371707  0.279855565019  -0.756711192896  
-0.295852503653  0.344002275765  -0.930159714477  
-0.371398366827  0.334365358342  -0.90410211838  
-0.653214657377  0.272675865295  -0.737297753173  
-0.658532925057  0.271011784467  -0.732798187163  
-0.78121189211  0.224812967929  -0.607879600781  
-0.78121189211  0.224812967929  -0.607879600781  
1.0  5.96250527692e-17  2.20512171468e-17  
1.0  5.96250527692e-17  2.20512171468e-17  
1.0  5.96250527692e-17  2.20512171468e-17  
1.0  5.96250527692e-17  2.20512171468e-17  
1.0  5.96250527692e-17  2.20512171468e-17  
1.0  5.96250527692e-17  2.20512171468e-17  
1.0  5.96250527692e-17  2.20512171468e-17  
1.0  5.96250527692e-17  2.20512171468e-17  
1.0  5.96250527692e-17  2.20512171468e-17  
1.0  5.96250527692e-17  2.20512171468e-17  
1.0  5.96250527692e-17  2.20512171468e-17  
1.0  5.96250527692e-17  2.20512171468e-17  
1.0  5.96250527692e-17  2.20512171468e-17  
1.0  5.96250527692e-17  2.20512171468e-17  
1.0  5.96250527692e-17  2.20512171468e-17  
1.0  5.96250527692e-17  2.20512171468e-17  
1.0  5.96250527692e-17  2.20512171468e-17  
1.0  5.96250527692e-17  2.20512171468e-17  
1.0  5.96250527692e-17  2.20512171468e-17  
1.0  5.96250527692e-17  2.20512171468e-17  
-0.78121189211  0.224812967929  -0.607879600781  
-0.78121189211  0.224812967929  -0.607879600781  
-0.78121189211  0.224812967929  -0.607879600781  
-0.78121189211  0.224812967929  -0.607879600781  
-0.78121189211  0.224812967929  -0.607879600781  
-0.78121189211  0.224812967929  -0.607879600781  
-0.78121189211  0.224812967929  -0.607879600781  
-0.78121189211  0.224812967929  -0.607879600781  
-0.78121189211  0.224812967929  -0.607879600781  
0.980585476725  0.070617423864  -0.19094490777  
0.925402642126  0.136481634341  -0.369037436591  
0.842448457052  0.194026349989  -0.524634594075  
0.741900552897  0.24146652131  -0.652909722816  
0.633401623997  0.278672086805  -0.753511145005  
0.524459793  0.306622004449  -0.829085899146  
0.420053182759  0.326812078717  -0.883678542974  
0.322975485369  0.340823714659  -0.921565092584  
0.234437675928  0.350087472343  -0.94661368909  
0.15463858022  0.355791815963  -0.962037862145  
0.0831985302533  0.358875153563  -0.97037500589  
0.0194502004191  0.360055579558  -0.973566800781  
-0.0373827609319  0.359871986097  -0.973070376039  
-0.088084176478  0.3587239169  -0.969966071818  
-0.133392583007  0.356905379415  -0.965048865081  
-0.173977583742  0.354631679391  -0.958900928529  
-0.21043265677  0.352059943311  -0.951947121923  
-0.243276701892  0.349304483617  -0.944496538649  
-0.272959804208  0.346448165642  -0.936773241162  
-0.645187298273  0.27514331347  -0.743969572088  
-0.489741457279  0.313980230481  -0.848982062363  
-0.326926116541  0.340334871797  -0.920243293373  
0.259353186641  0.347801188641  -0.940431727093  
0.077602739284  0.359037701943  -0.970814526106  
-0.0613360376887  0.359445654518  -0.971917603259  
0.718172944412  0.250597358907  -0.677598912075  
0.826633222958  0.202656400135  -0.547969686735  
0.883983876296  0.168364093408  -0.455245526225  
0.828324162422  0.201758990723  -0.545543150223  
0.721951476139  0.249185324421  -0.673780862933  
0.608711986649  0.285719006138  -0.772565555211  
0.496417109023  0.312617672769  -0.845297795187  
0.389988733663  0.331608976366  -0.896649041316  
0.291988270671  0.344430198224  -0.931316788895  
0.203350592629  0.352599276371  -0.953405443337  
0.124023710758  0.357343281824  -0.966232924632  
0.0534273111046  0.359609355422  -0.972360239825  
-0.00925488165433  0.360108282116  -0.97370930506  
-0.0649043766153  0.359364380113  -0.97169784257  
-0.454564477531  0.320767166562  -0.867333494816  
-0.338723794574  0.338835300104  -0.916188549332  
-0.224320284807  0.350946123465  -0.948935425713  
-0.587438745152  0.291436818737  -0.788026147508  
-0.603705781797  0.287093212818  -0.776281320436  
-0.617511219244  0.28325964801  -0.765915611256  
-0.549125901447  0.30096965546  -0.813802316181  
-0.465670982448  0.318694328387  -0.861728675599  
-0.380718899222  0.333003085712  -0.900418622049  
-0.316973206398  0.341553743604  -0.923539043232  
-0.336501745156  0.339122314348  -0.916964617126  
-0.354596767709  0.336722622688  -0.910476007408  
-0.586072766312  0.291793265625  -0.788989956643  
-0.516000781128  0.308477684824  -0.834103537835  
-0.444091509831  0.322664154016  -0.872462825151  
-0.657205896263  0.271429231074  -0.733926935556  
-0.655877169441  0.271845727841  -0.735053115646  
-0.654546753503  0.272261273124  -0.736176722988  
-0.752593519307  0.237136194634  -0.641200801951  
-0.722527180091  0.248968828358  -0.673195471699  
-0.691131027054  0.260272018778  -0.70375856129  
-0.78121189211  0.224812967929  -0.607879600781  
-0.78121189211  0.224812967929  -0.607879600781  
-0.78121189211  0.224812967929  -0.607879600781  
-0.730426644656  0.245961305123  -0.665063325051  
-0.675517140404  0.265535155571  -0.717989739866  
-0.617161348226  0.283358519867  -0.766182954308  
-0.556098781378  0.299304647054  -0.809300242061  
-0.493096549114  0.313298474071  -0.8471386375  
-0.428916321758  0.325315669445  -0.879632349912  
-0.364284944117  0.335378719046  -0.906842179622  
0.980585476725  0.070617423864  -0.19094490777  
0.925402642126  0.136481634341  -0.369037436591  
0.842448457052  0.194026349989  -0.524634594075  
0.741900552897  0.24146652131  -0.652909722816  
0.633401623997  0.278672086805  -0.753511145005  
0.524459793  0.306622004449  -0.829085899146  
0.420053182759  0.326812078717  -0.883678542974  
0.322975485369  0.340823714659  -0.921565092584  
0.234437675928  0.350087472343  -0.94661368909  
0.15463858022  0.355791815963  -0.962037862145  
0.0831985302533  0.358875153563  -0.97037500589  
0.0194502004191  0.360055579558  -0.973566800781  
-0.0373827609319  0.359871986097  -0.973070376039  
-0.088084176478  0.3587239169  -0.969966071818  
-0.133392583007  0.356905379415  -0.965048865081  
-0.173977583742  0.354631679391  -0.958900928529  
-0.21043265677  0.352059943311  -0.951947121923  
-0.243276701892  0.349304483617  -0.944496538649  
-0.272959804208  0.346448165642  -0.936773241162  
-0.29987066417  0.343550764089  -0.928938856358  
-0.29987066417  0.343550764089  -0.928938856358  
-0.29987066417  0.343550764089  -0.928938856358  
-0.645187298273  0.27514331347  -0.743969572088  
-0.489741457279  0.313980230481  -0.848982062363  
-0.326926116541  0.340334871797  -0.920243293373  
0.259353186641  0.347801188641  -0.940431727093  
0.077602739284  0.359037701943  -0.970814526106  
-0.0613360376887  0.359445654518  -0.971917603259  
0.718172944412  0.250597358907  -0.677598912075  
0.826633222958  0.202656400135  -0.547969686735  
0.883983876296  0.168364093408  -0.455245526225  
0.828324162422  0.201758990723  -0.545543150223  
0.721951476139  0.249185324421  -0.673780862933  
0.608711986649  0.285719006138  -0.772565555211  
0.496417109023  0.312617672769  -0.845297795187  
0.389988733663  0.331608976366  -0.896649041316  
0.291988270671  0.344430198224  -0.931316788895  
0.203350592629  0.352599276371  -0.953405443337  
0.124023710758  0.357343281824  -0.966232924632  
0.0534273111046  0.359609355422  -0.972360239825  
-0.00925488165433  0.360108282116  -0.97370930506  
-0.0649043766153  0.359364380113  -0.97169784257  
-0.454564477531  0.320767166562  -0.867333494816  
-0.338723794574  0.338835300104  -0.916188549332  
-0.224320284807  0.350946123465  -0.948935425713  
-0.587438745152  0.291436818737  -0.788026147508  
-0.603705781797  0.287093212818  -0.776281320436  
-0.617511219244  0.28325964801  -0.765915611256  
-0.549125901447  0.30096965546  -0.813802316181  
-0.465670982448  0.318694328387  -0.861728675599  
-0.380718899222  0.333003085712  -0.900418622049  
-0.316973206398  0.341553743604  -0.923539043232  
-0.336501745156  0.339122314348  -0.916964617126  
-0.354596767709  0.336722622688  -0.910476007408  
-0.586072766312  0.291793265625  -0.788989956643  
-0.516000781128  0.308477684824  -0.834103537835  
-0.444091509831  0.322664154016  -0.872462825151  
-0.657205896263  0.271429231074  -0.733926935556  
-0.655877169441  0.271845727841  -0.735053115646  
-0.654546753503  0.272261273124  -0.736176722988  
-0.752593519307  0.237136194634  -0.641200801951  
-0.722527180091  0.248968828358  -0.673195471699  
-0.691131027054  0.260272018778  -0.70375856129  
-0.78121189211  0.224812967929  -0.607879600781  
-0.78121189211  0.224812967929  -0.607879600781  
-0.78121189211  0.224812967929  -0.607879600781  
-0.730426644656  0.245961305123  -0.665063325051  
-0.675517140404  0.265535155571  -0.717989739866  
-0.617161348226  0.283358519867  -0.766182954308  
-0.556098781378  0.299304647054  -0.809300242061  
-0.493096549114  0.313298474071  -0.8471386375  
-0.428916321758  0.325315669445  -0.879632349912  
-0.364284944117  0.335378719046  -0.906842179622  
-0.167515299117  0.35503496875  -0.95999139665  
-0.167515299117  0.35503496875  -0.95999139665  
-0.167515299117  0.35503496875  -0.95999139665  
-0.78121189211  0.224812967929  -0.607879600781  
-0.78121189211  0.224812967929  -0.607879600781  
-0.78121189211  0.224812967929  -0.607879600781  
-0.78121189211  0.224812967929  -0.607879600781  
-0.78121189211  0.224812967929  -0.607879600781  
-0.78121189211  0.224812967929  -0.607879600781  
-0.658532925057  0.271011784467  -0.732798187163  
-0.658532925057  0.271011784467  -0.732798187163  
-0.658532925057  0.271011784467  -0.732798187163  
-0.653214657377  0.272675865295  -0.737297753173  
-0.653214657377  0.272675865295  -0.737297753173  
-0.653214657377  0.272675865295  -0.737297753173  
-0.371398366827  0.334365358342  -0.90410211838  
-0.371398366827  0.334365358342  -0.90410211838  
-0.371398366827  0.334365358342  -0.90410211838  
-0.295852503653  0.344002275765  -0.930159714477  
-0.295852503653  0.344002275765  -0.930159714477  
-0.295852503653  0.344002275765  -0.930159714477  
-0.629365371707  0.279855565019  -0.756711192896  
-0.629365371707  0.279855565019  -0.756711192896  
-0.629365371707  0.279855565019  -0.756711192896  
-0.56801058198  0.29638946223  -0.801417772452  
-0.56801058198  0.29638946223  -0.801417772452  
-0.56801058198  0.29638946223  -0.801417772452  
-0.114376424321  0.357760387485  -0.967360751131  
-0.114376424321  0.357760387485  -0.967360751131  
-0.114376424321  0.357760387485  -0.967360751131  
0.917378419747  0.143335041334  -0.387568602056  
0.917378419747  0.143335041334  -0.387568602056  
0.917378419747  0.143335041334  -0.387568602056  
0.488976243218  0.314134864333  -0.849400182211  
0.488976243218  0.314134864333  -0.849400182211  
0.488976243218  0.314134864333  -0.849400182211  
1.0  5.96250527692e-17  2.20512171468e-17  
1.0  5.96250527692e-17  2.20512171468e-17  
1.0  5.96250527692e-17  2.20512171468e-17  
1.0  5.96250527692e-17  2.20512171468e-17  
1.0  5.96250527692e-17  2.20512171468e-17  
1.0  5.96250527692e-17  2.20512171468e-17  
1.0  5.96250527692e-17  2.20512171468e-17  
1.0  5.96250527692e-17  2.20512171468e-17  
1.0  5.96250527692e-17  2.20512171468e-17  
1.0  5.96250527692e-17  2.20512171468e-17  
1.0  5.96250527692e-17  2.20512171468e-17  
1.0  5.96250527692e-17  2.20512171468e-17  
1.0  5.96250527692e-17  2.20512171468e-17  
1.0  5.96250527692e-17  2.20512171468e-17  
1.0  5.96250527692e-17  2.20512171468e-17  
1.0  5.96250527692e-17  2.20512171468e-17  
1.0  5.96250527692e-17  2.20512171468e-17  
1.0  5.96250527692e-17  2.20512171468e-17  
1.0  5.96250527692e-17  2.20512171468e-17  
1.0  5.96250527692e-17  2.20512171468e-17  
1.0  5.96250527692e-17  2.20512171468e-17  
-0.78121189211  0.224812967929  -0.607879600781  
-0.78121189211  0.224812967929  -0.607879600781  
-0.78121189211  0.224812967929  -0.607879600781  
-0.78121189211  0.224812967929  -0.607879600781  
-0.78121189211  0.224812967929  -0.607879600781  
-0.78121189211  0.224812967929  -0.607879600781  
-0.78121189211  0.224812967929  -0.607879600781  
-0.78121189211  0.224812967929  -0.607879600781  
-0.78121189211  0.224812967929  -0.607879600781  
-0.412072134204  0.328127155469  -0.88723442473  
-0.213273251723  0.351838191366  -0.95134751913  
-0.698339150024  0.257764672504  -0.696978860521  
-0.667430990437  0.268173915413  -0.725124774355  
-0.0998894406506  0.35832256186  -0.968880833971  
-0.272959804208  0.346448165642  -0.936773241162  
-0.753245631221  0.236867522645  -0.640474330417  
-0.24153882349  0.349460858849  -0.944919367077  
-0.666172862135  0.268579312412  -0.726220941394  
-0.66491312529  0.268983850914  -0.727314787116  
0.076566258661  0.359066560469  -0.97089255768  
0.0185662679347  0.360061631449  -0.973583164699  
0.140956808768  0.356528138843  -0.964028831182  
-0.741570610567  0.241597927399  -0.653265036308  
-0.509820987656  0.309807405795  -0.837699016602  
-0.166800172474  0.355078631896  -0.960109458948  
-0.378365456687  0.333350775664  -0.901358753  
-0.312776973224  0.342055073584  -0.924894606797  
-0.27168396411  0.346578201297  -0.937124849089  
0.949923269838  0.112532625756  -0.304280879568  
0.818766393938  0.206756673537  -0.559056558554  
0.913348282765  0.146634888158  -0.396491172619  
0.389320847241  0.331710740126  -0.896924203883  
0.977298384384  0.0762985348946  -0.206306261419  
0.967538445243  0.0910118582578  -0.246090128046  
-0.537007966193  0.303792136662  -0.821434121242  
-0.401422081557  0.329834844668  -0.891851904932  
-0.469724665901  0.317921877445  -0.859640018639  
-0.307552421607  0.342668919343  -0.926554405687  
-0.337233976068  0.33902797017  -0.916709516623  
-0.5096389818  0.3098462396  -0.837804020678  
-0.484463031213  0.315040443345  -0.851848808789  
-0.440874461307  0.323235793678  -0.874008501509  
-0.257713614589  0.347959211849  -0.940859011539  
-0.349331367742  0.337435641925  -0.912403964914  
-0.0986459418183  0.358367235928  -0.969001629736  
-0.0435292963118  0.35978236235  -0.972828039274  
-0.195532948008  0.353172285189  -0.954954821804  
-0.256737490436  0.348052781683  -0.941112018268  
-0.227598052813  0.350672318953  -0.948195076174  
-0.283290428326  0.345370937638  -0.933860486905  
-0.530884689199  0.305184697421  -0.825199514698  
0.921904275036  0.139518313127  -0.377248417948  
0.979185933003  0.0730926119756  -0.197637654968  
0.309181466234  0.342478745828  -0.926040188909  
0.220569734843  0.351254293179  -0.949768696518  
-0.150355177194  0.356029835231  -0.96268145072  
0.733129585516  0.244916160765  -0.662237322884  
0.836263136313  0.19746603297  -0.533935272488  
0.512043933741  0.309331591286  -0.836412445207  
0.406703411786  0.328994703082  -0.889580216885  
0.622506455019  0.281838092851  -0.762071818834  
-0.602375764065  0.287455298057  -0.777260375302  
-0.685651548398  0.262144816431  -0.708822483982  
-0.0191578486963  0.360057612318  -0.973572297232  
-0.762586590791  0.232959037351  -0.629906041131  
-0.213871614881  0.351791082836  -0.951220140736  
-0.663707468514  0.269369738207  -0.728358201186  
-0.661998513335  0.269914571357  -0.729831394482  
0.00988741144241  0.360106101814  -0.973703409667  
0.0907041037625  0.358639234601  -0.969737096406  
0.745701139706  0.239943430926  -0.648791385769  
0.926395935854  0.135604900419  -0.366666805258  
0.526945788946  0.306068739962  -0.827589908063  
0.32272376322  0.340854637232  -0.921648705205  
0.152681802314  0.355901399041  -0.96233416764  
0.0174965408821  0.36006857889  -0.973601950128  
-0.0895033856068  0.358678355232  -0.969842876041  
-0.243894100583  0.349248642907  -0.944345549011  
-0.17472441448  0.354584058044  -0.958772163513  
0.153659486559  0.35584682562  -0.96218660467  
0.32284961638  0.340839180282  -0.92160691062  
0.233232993235  0.350191810929  -0.94689581382  
0.23383510917  0.350139732238  -0.946754996436  
0.32284961638  0.340839180282  -0.92160691062  
0.153659486559  0.35584682562  -0.96218660467  
0.23383510917  0.350139732238  -0.946754996436  
0.980854409916  0.0701313770251  -0.189630668822  
0.925899984511  0.136043477311  -0.367852688564  
0.980720168083  0.070374430505  -0.190287869577  
-0.243585555875  0.349276568084  -0.944421056867  
-0.273239384917  0.346419582411  -0.936695953968  
-0.273099628491  0.34643387451  -0.936734598873  
-0.243585555875  0.349276568084  -0.944421056867  
-0.273099628491  0.34643387451  -0.936734598873  
0.925899984511  0.136043477311  -0.367852688564  
0.980720168083  0.070374430505  -0.190287869577  
-0.174351193957  0.35460788259  -0.958836583533  
-0.211110677322  0.352007296221  -0.951804767627  
-0.210771840537  0.352033628449  -0.951875968252  
-0.174351193957  0.35460788259  -0.958836583533  
-0.210771840537  0.352033628449  -0.951875968252  
0.844779895935  0.192707214349  -0.521067737352  
0.74380212236  0.240706642236  -0.650855059367  
0.843615556607  0.193367581877  -0.522853328071  
0.74380212236  0.240706642236  -0.650855059367  
0.843615556607  0.193367581877  -0.522853328071  
0.0812289265824  0.35893366595  -0.970533219567  
0.0184724572803  0.360062257204  -0.9735848567  
0.0822129066152  0.358904610586  -0.970454655758  
0.0184724572803  0.360062257204  -0.9735848567  
0.0822129066152  0.358904610586  -0.970454655758  
0.525702477548  0.3063458939  -0.828339314234  
0.421086684695  0.326639546784  -0.88321202788  
0.420569836388  0.326725893386  -0.883445503459  
-0.0390485721257  0.359849043824  -0.97300834163  
-0.0887943733165  0.358701208803  -0.969904670605  
-0.0382164064269  0.359860629959  -0.973039669783  
0.525702477548  0.3063458939  -0.828339314234  
0.420569836388  0.326725893386  -0.883445503459  
-0.0887943733165  0.358701208803  -0.969904670605  
-0.0382164064269  0.359860629959  -0.973039669783  
-0.134443798484  0.356854221507  -0.964910537436  
-0.133918546122  0.35687983428  -0.964979792702  
-0.133918546122  0.35687983428  -0.964979792702  
0.636642877575  0.277712553098  -0.75091662845  
0.635022285242  0.278193335651  -0.752216633111  
0.635022285242  0.278193335651  -0.752216633111  
-0.412072134142  0.328127155479  -0.887234424757  
-0.213273251393  0.351838191392  -0.9513475192  
-0.667430990437  0.268173915413  -0.725124774355  
-0.698339150024  0.257764672504  -0.696978860521  
-0.272959804208  0.346448165642  -0.936773241162  
-0.0998894406506  0.35832256186  -0.968880833971  
-0.753245631221  0.236867522645  -0.640474330417  
-0.24153882349  0.349460858849  -0.944919367077  
-0.666172862135  0.268579312412  -0.726220941394  
-0.66491312529  0.268983850914  -0.727314787116  
0.0185662679347  0.360061631449  -0.973583164699  
0.076566258661  0.359066560469  -0.97089255768  
0.140956808768  0.356528138843  -0.964028831182  
-0.741570610567  0.241597927399  -0.653265036308  